    1C
    1UUSER                                                              
    1UDATE              13.september.2018                               
    1UTIME              18:00:29                                        
    1UHOST                                                              
    1UPGM               CalculiX                                        
    1UVERSION           Version 2.12                             
    1UCOMPILETIME       So 2. Apr 15:03:04 CEST 2017                    
    1UDIR                                                               
    1UDBN                                                               
    1UMAT    1SOLIDMATERIAL                                             
    2C                         10386                                     1
 -1         1 1.00000E+01 3.82980E+01-3.00000E+00
 -1         2 1.00000E+01 3.82980E+01 3.00000E+00
 -1         3 1.00000E+01 2.19209E+02 3.00000E+00
 -1         4 1.00000E+01 2.19209E+02-3.00000E+00
 -1         5 1.59373E+01 2.03819E+01-3.00000E+00
 -1         6 1.59373E+01 2.03819E+01 3.00000E+00
 -1         7 1.22754E+01 2.28474E+02-3.00000E+00
 -1         8 1.22754E+01 2.28474E+02 3.00000E+00
 -1         9-1.65065E+01 2.17536E+01-3.00000E+00
 -1        10-1.22754E+01 2.28474E+02-3.00000E+00
 -1        11-1.00000E+01 2.19209E+02-3.00000E+00
 -1        12-1.00000E+01 4.04090E+01-3.00000E+00
 -1        13-1.65065E+01 2.17536E+01 3.00000E+00
 -1        14-1.22754E+01 2.28474E+02 3.00000E+00
 -1        15-1.00000E+01 2.19209E+02 3.00000E+00
 -1        16-1.00000E+01 4.04090E+01 3.00000E+00
 -1        17-1.83970E+01-1.64210E+01-5.00000E+00
 -1        18-1.83970E+01-1.64210E+01 5.00000E+00
 -1        19 5.51000E+00-2.37300E+01 5.00000E+00
 -1        20 5.51000E+00-2.37300E+01-5.00000E+00
 -1        21-1.65000E+01 2.39500E+02-5.00000E+00
 -1        22-1.65000E+01 2.39500E+02 5.00000E+00
 -1        23-1.25500E+01 2.70500E+00-5.00000E+00
 -1        24-1.25500E+01 2.70500E+00 5.00000E+00
 -1        25 1.13580E+01-4.60400E+00-5.00000E+00
 -1        26 1.13580E+01-4.60400E+00 5.00000E+00
 -1        27 9.15100E+00 2.48651E+02-5.00000E+00
 -1        28 7.21700E+00 2.52000E+02-5.00000E+00
 -1        29 1.25000E+01 2.46717E+02-5.00000E+00
 -1        30 1.25000E+01 2.42849E+02-5.00000E+00
 -1        31 1.44340E+01 2.39500E+02-5.00000E+00
 -1        32 1.25000E+01 2.36151E+02-5.00000E+00
 -1        33 1.25000E+01 2.32283E+02-5.00000E+00
 -1        34 9.15100E+00 2.30349E+02-5.00000E+00
 -1        35 7.21700E+00 2.27000E+02-5.00000E+00
 -1        36 3.34900E+00 2.27000E+02-5.00000E+00
 -1        37-1.11022E-15 2.25066E+02-5.00000E+00
 -1        38-3.34900E+00 2.27000E+02-5.00000E+00
 -1        39-7.21700E+00 2.27000E+02-5.00000E+00
 -1        40-9.15100E+00 2.30349E+02-5.00000E+00
 -1        41-1.25000E+01 2.32283E+02-5.00000E+00
 -1        42-1.25000E+01 2.36151E+02-5.00000E+00
 -1        43-1.44340E+01 2.39500E+02-5.00000E+00
 -1        44-1.25000E+01 2.42849E+02-5.00000E+00
 -1        45-1.25000E+01 2.46717E+02-5.00000E+00
 -1        46-9.15100E+00 2.48651E+02-5.00000E+00
 -1        47-7.21700E+00 2.52000E+02-5.00000E+00
 -1        48-3.34900E+00 2.52000E+02-5.00000E+00
 -1        49-1.11022E-15 2.53934E+02-5.00000E+00
 -1        50 3.34900E+00 2.52000E+02-5.00000E+00
 -1        51-1.44340E+01 2.39500E+02 5.00000E+00
 -1        52-1.25000E+01 2.36151E+02 5.00000E+00
 -1        53-1.25000E+01 2.42849E+02 5.00000E+00
 -1        54-1.25000E+01 2.46717E+02 5.00000E+00
 -1        55-9.15100E+00 2.48651E+02 5.00000E+00
 -1        56-7.21700E+00 2.52000E+02 5.00000E+00
 -1        57-3.34900E+00 2.52000E+02 5.00000E+00
 -1        58 1.11022E-15 2.53934E+02 5.00000E+00
 -1        59 3.34900E+00 2.52000E+02 5.00000E+00
 -1        60 7.21700E+00 2.52000E+02 5.00000E+00
 -1        61 9.15100E+00 2.48651E+02 5.00000E+00
 -1        62 1.25000E+01 2.46717E+02 5.00000E+00
 -1        63 1.25000E+01 2.42849E+02 5.00000E+00
 -1        64 1.44340E+01 2.39500E+02 5.00000E+00
 -1        65 1.25000E+01 2.36151E+02 5.00000E+00
 -1        66 1.25000E+01 2.32283E+02 5.00000E+00
 -1        67 9.15100E+00 2.30349E+02 5.00000E+00
 -1        68 7.21700E+00 2.27000E+02 5.00000E+00
 -1        69 3.34900E+00 2.27000E+02 5.00000E+00
 -1        70 1.11022E-15 2.25066E+02 5.00000E+00
 -1        71-3.34900E+00 2.27000E+02 5.00000E+00
 -1        72-7.21700E+00 2.27000E+02 5.00000E+00
 -1        73-9.15100E+00 2.30349E+02 5.00000E+00
 -1        74-1.25000E+01 2.32283E+02 5.00000E+00
 -1        75 1.00000E+01 3.82980E+01 0.00000E+00
 -1        76 1.00000E+01 3.82980E+01-1.50000E+00
 -1        77 1.00000E+01 3.82980E+01 1.50000E+00
 -1        78 1.00000E+01 4.22308E+01 3.00000E+00
 -1        79 1.00000E+01 4.61637E+01 3.00000E+00
 -1        80 1.00000E+01 5.00965E+01 3.00000E+00
 -1        81 1.00000E+01 5.40294E+01 3.00000E+00
 -1        82 1.00000E+01 5.79622E+01 3.00000E+00
 -1        83 1.00000E+01 6.18951E+01 3.00000E+00
 -1        84 1.00000E+01 6.58279E+01 3.00000E+00
 -1        85 1.00000E+01 6.97608E+01 3.00000E+00
 -1        86 1.00000E+01 7.36936E+01 3.00000E+00
 -1        87 1.00000E+01 7.76265E+01 3.00000E+00
 -1        88 1.00000E+01 8.15593E+01 3.00000E+00
 -1        89 1.00000E+01 8.54922E+01 3.00000E+00
 -1        90 1.00000E+01 8.94250E+01 3.00000E+00
 -1        91 1.00000E+01 9.33579E+01 3.00000E+00
 -1        92 1.00000E+01 9.72907E+01 3.00000E+00
 -1        93 1.00000E+01 1.01224E+02 3.00000E+00
 -1        94 1.00000E+01 1.05156E+02 3.00000E+00
 -1        95 1.00000E+01 1.09089E+02 3.00000E+00
 -1        96 1.00000E+01 1.13022E+02 3.00000E+00
 -1        97 1.00000E+01 1.16955E+02 3.00000E+00
 -1        98 1.00000E+01 1.20888E+02 3.00000E+00
 -1        99 1.00000E+01 1.24821E+02 3.00000E+00
 -1       100 1.00000E+01 1.28753E+02 3.00000E+00
 -1       101 1.00000E+01 1.32686E+02 3.00000E+00
 -1       102 1.00000E+01 1.36619E+02 3.00000E+00
 -1       103 1.00000E+01 1.40552E+02 3.00000E+00
 -1       104 1.00000E+01 1.44485E+02 3.00000E+00
 -1       105 1.00000E+01 1.48418E+02 3.00000E+00
 -1       106 1.00000E+01 1.52351E+02 3.00000E+00
 -1       107 1.00000E+01 1.56283E+02 3.00000E+00
 -1       108 1.00000E+01 1.60216E+02 3.00000E+00
 -1       109 1.00000E+01 1.64149E+02 3.00000E+00
 -1       110 1.00000E+01 1.68082E+02 3.00000E+00
 -1       111 1.00000E+01 1.72015E+02 3.00000E+00
 -1       112 1.00000E+01 1.75948E+02 3.00000E+00
 -1       113 1.00000E+01 1.79881E+02 3.00000E+00
 -1       114 1.00000E+01 1.83813E+02 3.00000E+00
 -1       115 1.00000E+01 1.87746E+02 3.00000E+00
 -1       116 1.00000E+01 1.91679E+02 3.00000E+00
 -1       117 1.00000E+01 1.95612E+02 3.00000E+00
 -1       118 1.00000E+01 1.99545E+02 3.00000E+00
 -1       119 1.00000E+01 2.03478E+02 3.00000E+00
 -1       120 1.00000E+01 2.07410E+02 3.00000E+00
 -1       121 1.00000E+01 2.11343E+02 3.00000E+00
 -1       122 1.00000E+01 2.15276E+02 3.00000E+00
 -1       123 1.00000E+01 4.02644E+01 3.00000E+00
 -1       124 1.00000E+01 4.41973E+01 3.00000E+00
 -1       125 1.00000E+01 4.81301E+01 3.00000E+00
 -1       126 1.00000E+01 5.20630E+01 3.00000E+00
 -1       127 1.00000E+01 5.59958E+01 3.00000E+00
 -1       128 1.00000E+01 5.99287E+01 3.00000E+00
 -1       129 1.00000E+01 6.38615E+01 3.00000E+00
 -1       130 1.00000E+01 6.77944E+01 3.00000E+00
 -1       131 1.00000E+01 7.17272E+01 3.00000E+00
 -1       132 1.00000E+01 7.56601E+01 3.00000E+00
 -1       133 1.00000E+01 7.95929E+01 3.00000E+00
 -1       134 1.00000E+01 8.35257E+01 3.00000E+00
 -1       135 1.00000E+01 8.74586E+01 3.00000E+00
 -1       136 1.00000E+01 9.13914E+01 3.00000E+00
 -1       137 1.00000E+01 9.53243E+01 3.00000E+00
 -1       138 1.00000E+01 9.92571E+01 3.00000E+00
 -1       139 1.00000E+01 1.03190E+02 3.00000E+00
 -1       140 1.00000E+01 1.07123E+02 3.00000E+00
 -1       141 1.00000E+01 1.11056E+02 3.00000E+00
 -1       142 1.00000E+01 1.14989E+02 3.00000E+00
 -1       143 1.00000E+01 1.18921E+02 3.00000E+00
 -1       144 1.00000E+01 1.22854E+02 3.00000E+00
 -1       145 1.00000E+01 1.26787E+02 3.00000E+00
 -1       146 1.00000E+01 1.30720E+02 3.00000E+00
 -1       147 1.00000E+01 1.34653E+02 3.00000E+00
 -1       148 1.00000E+01 1.38586E+02 3.00000E+00
 -1       149 1.00000E+01 1.42518E+02 3.00000E+00
 -1       150 1.00000E+01 1.46451E+02 3.00000E+00
 -1       151 1.00000E+01 1.50384E+02 3.00000E+00
 -1       152 1.00000E+01 1.54317E+02 3.00000E+00
 -1       153 1.00000E+01 1.58250E+02 3.00000E+00
 -1       154 1.00000E+01 1.62183E+02 3.00000E+00
 -1       155 1.00000E+01 1.66116E+02 3.00000E+00
 -1       156 1.00000E+01 1.70048E+02 3.00000E+00
 -1       157 1.00000E+01 1.73981E+02 3.00000E+00
 -1       158 1.00000E+01 1.77914E+02 3.00000E+00
 -1       159 1.00000E+01 1.81847E+02 3.00000E+00
 -1       160 1.00000E+01 1.85780E+02 3.00000E+00
 -1       161 1.00000E+01 1.89713E+02 3.00000E+00
 -1       162 1.00000E+01 1.93645E+02 3.00000E+00
 -1       163 1.00000E+01 1.97578E+02 3.00000E+00
 -1       164 1.00000E+01 2.01511E+02 3.00000E+00
 -1       165 1.00000E+01 2.05444E+02 3.00000E+00
 -1       166 1.00000E+01 2.09377E+02 3.00000E+00
 -1       167 1.00000E+01 2.13310E+02 3.00000E+00
 -1       168 1.00000E+01 2.17243E+02 3.00000E+00
 -1       169 1.00000E+01 2.19209E+02 0.00000E+00
 -1       170 1.00000E+01 2.19209E+02-1.50000E+00
 -1       171 1.00000E+01 2.19209E+02 1.50000E+00
 -1       172 1.00000E+01 4.22308E+01-3.00000E+00
 -1       173 1.00000E+01 4.61637E+01-3.00000E+00
 -1       174 1.00000E+01 5.00965E+01-3.00000E+00
 -1       175 1.00000E+01 5.40294E+01-3.00000E+00
 -1       176 1.00000E+01 5.79622E+01-3.00000E+00
 -1       177 1.00000E+01 6.18951E+01-3.00000E+00
 -1       178 1.00000E+01 6.58279E+01-3.00000E+00
 -1       179 1.00000E+01 6.97608E+01-3.00000E+00
 -1       180 1.00000E+01 7.36936E+01-3.00000E+00
 -1       181 1.00000E+01 7.76265E+01-3.00000E+00
 -1       182 1.00000E+01 8.15593E+01-3.00000E+00
 -1       183 1.00000E+01 8.54922E+01-3.00000E+00
 -1       184 1.00000E+01 8.94250E+01-3.00000E+00
 -1       185 1.00000E+01 9.33579E+01-3.00000E+00
 -1       186 1.00000E+01 9.72907E+01-3.00000E+00
 -1       187 1.00000E+01 1.01224E+02-3.00000E+00
 -1       188 1.00000E+01 1.05156E+02-3.00000E+00
 -1       189 1.00000E+01 1.09089E+02-3.00000E+00
 -1       190 1.00000E+01 1.13022E+02-3.00000E+00
 -1       191 1.00000E+01 1.16955E+02-3.00000E+00
 -1       192 1.00000E+01 1.20888E+02-3.00000E+00
 -1       193 1.00000E+01 1.24821E+02-3.00000E+00
 -1       194 1.00000E+01 1.28753E+02-3.00000E+00
 -1       195 1.00000E+01 1.32686E+02-3.00000E+00
 -1       196 1.00000E+01 1.36619E+02-3.00000E+00
 -1       197 1.00000E+01 1.40552E+02-3.00000E+00
 -1       198 1.00000E+01 1.44485E+02-3.00000E+00
 -1       199 1.00000E+01 1.48418E+02-3.00000E+00
 -1       200 1.00000E+01 1.52351E+02-3.00000E+00
 -1       201 1.00000E+01 1.56283E+02-3.00000E+00
 -1       202 1.00000E+01 1.60216E+02-3.00000E+00
 -1       203 1.00000E+01 1.64149E+02-3.00000E+00
 -1       204 1.00000E+01 1.68082E+02-3.00000E+00
 -1       205 1.00000E+01 1.72015E+02-3.00000E+00
 -1       206 1.00000E+01 1.75948E+02-3.00000E+00
 -1       207 1.00000E+01 1.79881E+02-3.00000E+00
 -1       208 1.00000E+01 1.83813E+02-3.00000E+00
 -1       209 1.00000E+01 1.87746E+02-3.00000E+00
 -1       210 1.00000E+01 1.91679E+02-3.00000E+00
 -1       211 1.00000E+01 1.95612E+02-3.00000E+00
 -1       212 1.00000E+01 1.99545E+02-3.00000E+00
 -1       213 1.00000E+01 2.03478E+02-3.00000E+00
 -1       214 1.00000E+01 2.07410E+02-3.00000E+00
 -1       215 1.00000E+01 2.11343E+02-3.00000E+00
 -1       216 1.00000E+01 2.15276E+02-3.00000E+00
 -1       217 1.00000E+01 4.02644E+01-3.00000E+00
 -1       218 1.00000E+01 4.41973E+01-3.00000E+00
 -1       219 1.00000E+01 4.81301E+01-3.00000E+00
 -1       220 1.00000E+01 5.20630E+01-3.00000E+00
 -1       221 1.00000E+01 5.59958E+01-3.00000E+00
 -1       222 1.00000E+01 5.99287E+01-3.00000E+00
 -1       223 1.00000E+01 6.38615E+01-3.00000E+00
 -1       224 1.00000E+01 6.77944E+01-3.00000E+00
 -1       225 1.00000E+01 7.17272E+01-3.00000E+00
 -1       226 1.00000E+01 7.56601E+01-3.00000E+00
 -1       227 1.00000E+01 7.95929E+01-3.00000E+00
 -1       228 1.00000E+01 8.35257E+01-3.00000E+00
 -1       229 1.00000E+01 8.74586E+01-3.00000E+00
 -1       230 1.00000E+01 9.13914E+01-3.00000E+00
 -1       231 1.00000E+01 9.53243E+01-3.00000E+00
 -1       232 1.00000E+01 9.92571E+01-3.00000E+00
 -1       233 1.00000E+01 1.03190E+02-3.00000E+00
 -1       234 1.00000E+01 1.07123E+02-3.00000E+00
 -1       235 1.00000E+01 1.11056E+02-3.00000E+00
 -1       236 1.00000E+01 1.14989E+02-3.00000E+00
 -1       237 1.00000E+01 1.18921E+02-3.00000E+00
 -1       238 1.00000E+01 1.22854E+02-3.00000E+00
 -1       239 1.00000E+01 1.26787E+02-3.00000E+00
 -1       240 1.00000E+01 1.30720E+02-3.00000E+00
 -1       241 1.00000E+01 1.34653E+02-3.00000E+00
 -1       242 1.00000E+01 1.38586E+02-3.00000E+00
 -1       243 1.00000E+01 1.42518E+02-3.00000E+00
 -1       244 1.00000E+01 1.46451E+02-3.00000E+00
 -1       245 1.00000E+01 1.50384E+02-3.00000E+00
 -1       246 1.00000E+01 1.54317E+02-3.00000E+00
 -1       247 1.00000E+01 1.58250E+02-3.00000E+00
 -1       248 1.00000E+01 1.62183E+02-3.00000E+00
 -1       249 1.00000E+01 1.66116E+02-3.00000E+00
 -1       250 1.00000E+01 1.70048E+02-3.00000E+00
 -1       251 1.00000E+01 1.73981E+02-3.00000E+00
 -1       252 1.00000E+01 1.77914E+02-3.00000E+00
 -1       253 1.00000E+01 1.81847E+02-3.00000E+00
 -1       254 1.00000E+01 1.85780E+02-3.00000E+00
 -1       255 1.00000E+01 1.89713E+02-3.00000E+00
 -1       256 1.00000E+01 1.93645E+02-3.00000E+00
 -1       257 1.00000E+01 1.97578E+02-3.00000E+00
 -1       258 1.00000E+01 2.01511E+02-3.00000E+00
 -1       259 1.00000E+01 2.05444E+02-3.00000E+00
 -1       260 1.00000E+01 2.09377E+02-3.00000E+00
 -1       261 1.00000E+01 2.13310E+02-3.00000E+00
 -1       262 1.00000E+01 2.17243E+02-3.00000E+00
 -1       263 1.38468E+01 2.35999E+01-3.00000E+00
 -1       264 1.21848E+01 2.70588E+01-3.00000E+00
 -1       265 1.09778E+01 3.07015E+01-3.00000E+00
 -1       266 1.02456E+01 3.44685E+01-3.00000E+00
 -1       267 1.48405E+01 2.19575E+01-3.00000E+00
 -1       268 1.29606E+01 2.53029E+01-3.00000E+00
 -1       269 1.15228E+01 2.88608E+01-3.00000E+00
 -1       270 1.05516E+01 3.25733E+01-3.00000E+00
 -1       271 1.00609E+01 3.63793E+01-3.00000E+00
 -1       272 1.59373E+01 2.03819E+01-1.24708E-13
 -1       273 1.59373E+01 2.03819E+01 1.50000E+00
 -1       274 1.59373E+01 2.03819E+01-1.50000E+00
 -1       275 1.38468E+01 2.35999E+01 3.00000E+00
 -1       276 1.21848E+01 2.70588E+01 3.00000E+00
 -1       277 1.09778E+01 3.07015E+01 3.00000E+00
 -1       278 1.02456E+01 3.44685E+01 3.00000E+00
 -1       279 1.48405E+01 2.19575E+01 3.00000E+00
 -1       280 1.29606E+01 2.53029E+01 3.00000E+00
 -1       281 1.15228E+01 2.88608E+01 3.00000E+00
 -1       282 1.05516E+01 3.25733E+01 3.00000E+00
 -1       283 1.00609E+01 3.63793E+01 3.00000E+00
 -1       284 1.02571E+01 2.22406E+02-3.00000E+00
 -1       285 1.10219E+01 2.25522E+02-3.00000E+00
 -1       286 1.00645E+01 2.20813E+02-3.00000E+00
 -1       287 1.05773E+01 2.23979E+02-3.00000E+00
 -1       288 1.15896E+01 2.27023E+02-3.00000E+00
 -1       289 1.02571E+01 2.22406E+02 3.00000E+00
 -1       290 1.10219E+01 2.25522E+02 3.00000E+00
 -1       291 1.00645E+01 2.20813E+02 3.00000E+00
 -1       292 1.05773E+01 2.23979E+02 3.00000E+00
 -1       293 1.15896E+01 2.27023E+02 3.00000E+00
 -1       294 1.22754E+01 2.28474E+02-2.75995E-15
 -1       295 1.22754E+01 2.28474E+02 1.50000E+00
 -1       296 1.22754E+01 2.28474E+02-1.50000E+00
 -1       297 1.26893E+01 2.23949E+01-3.00000E+00
 -1       298 9.21302E+00 2.39818E+01-3.00000E+00
 -1       299 5.56512E+00 2.51201E+01-3.00000E+00
 -1       300 1.80371E+00 2.57940E+01-3.00000E+00
 -1       301-2.01266E+00 2.59875E+01-3.00000E+00
 -1       302-5.82195E+00 2.56867E+01-3.00000E+00
 -1       303-9.55716E+00 2.48820E+01-3.00000E+00
 -1       304-1.31453E+01 2.35695E+01-3.00000E+00
 -1       305 1.43456E+01 2.14405E+01-3.00000E+00
 -1       306 1.09763E+01 2.32434E+01-3.00000E+00
 -1       307 7.40677E+00 2.46077E+01-3.00000E+00
 -1       308 3.69510E+00 2.55167E+01-3.00000E+00
 -1       309-1.01402E-01 2.59515E+01-3.00000E+00
 -1       310-3.92222E+00 2.58993E+01-3.00000E+00
 -1       311-7.70320E+00 2.53477E+01-3.00000E+00
 -1       312-1.13744E+01 2.42891E+01-3.00000E+00
 -1       313-1.48597E+01 2.27241E+01-3.00000E+00
 -1       314 9.30672E+00 2.25875E+02-3.00000E+00
 -1       315 5.80580E+00 2.24055E+02-3.00000E+00
 -1       316 1.97287E+00 2.23118E+02-3.00000E+00
 -1       317-1.97287E+00 2.23118E+02-3.00000E+00
 -1       318-5.80580E+00 2.24055E+02-3.00000E+00
 -1       319-9.30672E+00 2.25875E+02-3.00000E+00
 -1       320 1.08690E+01 2.27086E+02-3.00000E+00
 -1       321 7.61086E+00 2.24860E+02-3.00000E+00
 -1       322 3.91744E+00 2.23472E+02-3.00000E+00
 -1       323 3.39873E-13 2.23000E+02-3.00000E+00
 -1       324-3.91744E+00 2.23472E+02-3.00000E+00
 -1       325-7.61086E+00 2.24860E+02-3.00000E+00
 -1       326-1.08690E+01 2.27086E+02-3.00000E+00
 -1       327-1.10219E+01 2.25522E+02-3.00000E+00
 -1       328-1.02571E+01 2.22406E+02-3.00000E+00
 -1       329-1.15896E+01 2.27023E+02-3.00000E+00
 -1       330-1.05773E+01 2.23979E+02-3.00000E+00
 -1       331-1.00645E+01 2.20813E+02-3.00000E+00
 -1       332-1.00000E+01 2.15236E+02-3.00000E+00
 -1       333-1.00000E+01 2.11262E+02-3.00000E+00
 -1       334-1.00000E+01 2.07289E+02-3.00000E+00
 -1       335-1.00000E+01 2.03316E+02-3.00000E+00
 -1       336-1.00000E+01 1.99342E+02-3.00000E+00
 -1       337-1.00000E+01 1.95369E+02-3.00000E+00
 -1       338-1.00000E+01 1.91396E+02-3.00000E+00
 -1       339-1.00000E+01 1.87422E+02-3.00000E+00
 -1       340-1.00000E+01 1.83449E+02-3.00000E+00
 -1       341-1.00000E+01 1.79476E+02-3.00000E+00
 -1       342-1.00000E+01 1.75502E+02-3.00000E+00
 -1       343-1.00000E+01 1.71529E+02-3.00000E+00
 -1       344-1.00000E+01 1.67556E+02-3.00000E+00
 -1       345-1.00000E+01 1.63582E+02-3.00000E+00
 -1       346-1.00000E+01 1.59609E+02-3.00000E+00
 -1       347-1.00000E+01 1.55636E+02-3.00000E+00
 -1       348-1.00000E+01 1.51662E+02-3.00000E+00
 -1       349-1.00000E+01 1.47689E+02-3.00000E+00
 -1       350-1.00000E+01 1.43716E+02-3.00000E+00
 -1       351-1.00000E+01 1.39742E+02-3.00000E+00
 -1       352-1.00000E+01 1.35769E+02-3.00000E+00
 -1       353-1.00000E+01 1.31796E+02-3.00000E+00
 -1       354-1.00000E+01 1.27822E+02-3.00000E+00
 -1       355-1.00000E+01 1.23849E+02-3.00000E+00
 -1       356-1.00000E+01 1.19876E+02-3.00000E+00
 -1       357-1.00000E+01 1.15902E+02-3.00000E+00
 -1       358-1.00000E+01 1.11929E+02-3.00000E+00
 -1       359-1.00000E+01 1.07956E+02-3.00000E+00
 -1       360-1.00000E+01 1.03982E+02-3.00000E+00
 -1       361-1.00000E+01 1.00009E+02-3.00000E+00
 -1       362-1.00000E+01 9.60357E+01-3.00000E+00
 -1       363-1.00000E+01 9.20623E+01-3.00000E+00
 -1       364-1.00000E+01 8.80890E+01-3.00000E+00
 -1       365-1.00000E+01 8.41157E+01-3.00000E+00
 -1       366-1.00000E+01 8.01423E+01-3.00000E+00
 -1       367-1.00000E+01 7.61690E+01-3.00000E+00
 -1       368-1.00000E+01 7.21957E+01-3.00000E+00
 -1       369-1.00000E+01 6.82223E+01-3.00000E+00
 -1       370-1.00000E+01 6.42490E+01-3.00000E+00
 -1       371-1.00000E+01 6.02757E+01-3.00000E+00
 -1       372-1.00000E+01 5.63023E+01-3.00000E+00
 -1       373-1.00000E+01 5.23290E+01-3.00000E+00
 -1       374-1.00000E+01 4.83557E+01-3.00000E+00
 -1       375-1.00000E+01 4.43823E+01-3.00000E+00
 -1       376-1.00000E+01 2.17222E+02-3.00000E+00
 -1       377-1.00000E+01 2.13249E+02-3.00000E+00
 -1       378-1.00000E+01 2.09276E+02-3.00000E+00
 -1       379-1.00000E+01 2.05302E+02-3.00000E+00
 -1       380-1.00000E+01 2.01329E+02-3.00000E+00
 -1       381-1.00000E+01 1.97356E+02-3.00000E+00
 -1       382-1.00000E+01 1.93382E+02-3.00000E+00
 -1       383-1.00000E+01 1.89409E+02-3.00000E+00
 -1       384-1.00000E+01 1.85436E+02-3.00000E+00
 -1       385-1.00000E+01 1.81462E+02-3.00000E+00
 -1       386-1.00000E+01 1.77489E+02-3.00000E+00
 -1       387-1.00000E+01 1.73516E+02-3.00000E+00
 -1       388-1.00000E+01 1.69542E+02-3.00000E+00
 -1       389-1.00000E+01 1.65569E+02-3.00000E+00
 -1       390-1.00000E+01 1.61596E+02-3.00000E+00
 -1       391-1.00000E+01 1.57622E+02-3.00000E+00
 -1       392-1.00000E+01 1.53649E+02-3.00000E+00
 -1       393-1.00000E+01 1.49676E+02-3.00000E+00
 -1       394-1.00000E+01 1.45702E+02-3.00000E+00
 -1       395-1.00000E+01 1.41729E+02-3.00000E+00
 -1       396-1.00000E+01 1.37756E+02-3.00000E+00
 -1       397-1.00000E+01 1.33782E+02-3.00000E+00
 -1       398-1.00000E+01 1.29809E+02-3.00000E+00
 -1       399-1.00000E+01 1.25836E+02-3.00000E+00
 -1       400-1.00000E+01 1.21862E+02-3.00000E+00
 -1       401-1.00000E+01 1.17889E+02-3.00000E+00
 -1       402-1.00000E+01 1.13916E+02-3.00000E+00
 -1       403-1.00000E+01 1.09942E+02-3.00000E+00
 -1       404-1.00000E+01 1.05969E+02-3.00000E+00
 -1       405-1.00000E+01 1.01996E+02-3.00000E+00
 -1       406-1.00000E+01 9.80223E+01-3.00000E+00
 -1       407-1.00000E+01 9.40490E+01-3.00000E+00
 -1       408-1.00000E+01 9.00757E+01-3.00000E+00
 -1       409-1.00000E+01 8.61023E+01-3.00000E+00
 -1       410-1.00000E+01 8.21290E+01-3.00000E+00
 -1       411-1.00000E+01 7.81557E+01-3.00000E+00
 -1       412-1.00000E+01 7.41823E+01-3.00000E+00
 -1       413-1.00000E+01 7.02090E+01-3.00000E+00
 -1       414-1.00000E+01 6.62357E+01-3.00000E+00
 -1       415-1.00000E+01 6.22623E+01-3.00000E+00
 -1       416-1.00000E+01 5.82890E+01-3.00000E+00
 -1       417-1.00000E+01 5.43157E+01-3.00000E+00
 -1       418-1.00000E+01 5.03423E+01-3.00000E+00
 -1       419-1.00000E+01 4.63690E+01-3.00000E+00
 -1       420-1.00000E+01 4.23957E+01-3.00000E+00
 -1       421-1.01875E+01 3.70605E+01-3.00000E+00
 -1       422-1.07480E+01 3.37538E+01-3.00000E+00
 -1       423-1.16737E+01 3.05303E+01-3.00000E+00
 -1       424-1.29528E+01 2.74301E+01-3.00000E+00
 -1       425-1.45704E+01 2.44921E+01-3.00000E+00
 -1       426-1.00468E+01 3.87321E+01-3.00000E+00
 -1       427-1.04217E+01 3.53993E+01-3.00000E+00
 -1       428-1.11652E+01 3.21290E+01-3.00000E+00
 -1       429-1.22698E+01 2.89623E+01-3.00000E+00
 -1       430-1.37207E+01 2.59386E+01-3.00000E+00
 -1       431-1.55003E+01 2.30959E+01-3.00000E+00
 -1       432 1.26893E+01 2.23949E+01 3.00000E+00
 -1       433 9.21302E+00 2.39818E+01 3.00000E+00
 -1       434 5.56512E+00 2.51201E+01 3.00000E+00
 -1       435 1.80371E+00 2.57940E+01 3.00000E+00
 -1       436-2.01266E+00 2.59875E+01 3.00000E+00
 -1       437-5.82195E+00 2.56867E+01 3.00000E+00
 -1       438-9.55716E+00 2.48820E+01 3.00000E+00
 -1       439-1.31453E+01 2.35695E+01 3.00000E+00
 -1       440 1.43456E+01 2.14405E+01 3.00000E+00
 -1       441 1.09763E+01 2.32434E+01 3.00000E+00
 -1       442 7.40677E+00 2.46077E+01 3.00000E+00
 -1       443 3.69510E+00 2.55167E+01 3.00000E+00
 -1       444-1.01402E-01 2.59515E+01 3.00000E+00
 -1       445-3.92222E+00 2.58993E+01 3.00000E+00
 -1       446-7.70320E+00 2.53477E+01 3.00000E+00
 -1       447-1.13744E+01 2.42891E+01 3.00000E+00
 -1       448-1.48597E+01 2.27241E+01 3.00000E+00
 -1       449 9.30672E+00 2.25875E+02 3.00000E+00
 -1       450 5.80580E+00 2.24055E+02 3.00000E+00
 -1       451 1.97287E+00 2.23118E+02 3.00000E+00
 -1       452-1.97287E+00 2.23118E+02 3.00000E+00
 -1       453-5.80580E+00 2.24055E+02 3.00000E+00
 -1       454-9.30672E+00 2.25875E+02 3.00000E+00
 -1       455 1.08690E+01 2.27086E+02 3.00000E+00
 -1       456 7.61086E+00 2.24860E+02 3.00000E+00
 -1       457 3.91744E+00 2.23472E+02 3.00000E+00
 -1       458 3.42537E-13 2.23000E+02 3.00000E+00
 -1       459-3.91744E+00 2.23472E+02 3.00000E+00
 -1       460-7.61086E+00 2.24860E+02 3.00000E+00
 -1       461-1.08690E+01 2.27086E+02 3.00000E+00
 -1       462-1.10219E+01 2.25522E+02 3.00000E+00
 -1       463-1.02571E+01 2.22406E+02 3.00000E+00
 -1       464-1.15896E+01 2.27023E+02 3.00000E+00
 -1       465-1.05773E+01 2.23979E+02 3.00000E+00
 -1       466-1.00645E+01 2.20813E+02 3.00000E+00
 -1       467-1.00000E+01 2.15236E+02 3.00000E+00
 -1       468-1.00000E+01 2.11262E+02 3.00000E+00
 -1       469-1.00000E+01 2.07289E+02 3.00000E+00
 -1       470-1.00000E+01 2.03316E+02 3.00000E+00
 -1       471-1.00000E+01 1.99342E+02 3.00000E+00
 -1       472-1.00000E+01 1.95369E+02 3.00000E+00
 -1       473-1.00000E+01 1.91396E+02 3.00000E+00
 -1       474-1.00000E+01 1.87422E+02 3.00000E+00
 -1       475-1.00000E+01 1.83449E+02 3.00000E+00
 -1       476-1.00000E+01 1.79476E+02 3.00000E+00
 -1       477-1.00000E+01 1.75502E+02 3.00000E+00
 -1       478-1.00000E+01 1.71529E+02 3.00000E+00
 -1       479-1.00000E+01 1.67556E+02 3.00000E+00
 -1       480-1.00000E+01 1.63582E+02 3.00000E+00
 -1       481-1.00000E+01 1.59609E+02 3.00000E+00
 -1       482-1.00000E+01 1.55636E+02 3.00000E+00
 -1       483-1.00000E+01 1.51662E+02 3.00000E+00
 -1       484-1.00000E+01 1.47689E+02 3.00000E+00
 -1       485-1.00000E+01 1.43716E+02 3.00000E+00
 -1       486-1.00000E+01 1.39742E+02 3.00000E+00
 -1       487-1.00000E+01 1.35769E+02 3.00000E+00
 -1       488-1.00000E+01 1.31796E+02 3.00000E+00
 -1       489-1.00000E+01 1.27822E+02 3.00000E+00
 -1       490-1.00000E+01 1.23849E+02 3.00000E+00
 -1       491-1.00000E+01 1.19876E+02 3.00000E+00
 -1       492-1.00000E+01 1.15902E+02 3.00000E+00
 -1       493-1.00000E+01 1.11929E+02 3.00000E+00
 -1       494-1.00000E+01 1.07956E+02 3.00000E+00
 -1       495-1.00000E+01 1.03982E+02 3.00000E+00
 -1       496-1.00000E+01 1.00009E+02 3.00000E+00
 -1       497-1.00000E+01 9.60357E+01 3.00000E+00
 -1       498-1.00000E+01 9.20623E+01 3.00000E+00
 -1       499-1.00000E+01 8.80890E+01 3.00000E+00
 -1       500-1.00000E+01 8.41157E+01 3.00000E+00
 -1       501-1.00000E+01 8.01423E+01 3.00000E+00
 -1       502-1.00000E+01 7.61690E+01 3.00000E+00
 -1       503-1.00000E+01 7.21957E+01 3.00000E+00
 -1       504-1.00000E+01 6.82223E+01 3.00000E+00
 -1       505-1.00000E+01 6.42490E+01 3.00000E+00
 -1       506-1.00000E+01 6.02757E+01 3.00000E+00
 -1       507-1.00000E+01 5.63023E+01 3.00000E+00
 -1       508-1.00000E+01 5.23290E+01 3.00000E+00
 -1       509-1.00000E+01 4.83557E+01 3.00000E+00
 -1       510-1.00000E+01 4.43823E+01 3.00000E+00
 -1       511-1.00000E+01 2.17222E+02 3.00000E+00
 -1       512-1.00000E+01 2.13249E+02 3.00000E+00
 -1       513-1.00000E+01 2.09276E+02 3.00000E+00
 -1       514-1.00000E+01 2.05302E+02 3.00000E+00
 -1       515-1.00000E+01 2.01329E+02 3.00000E+00
 -1       516-1.00000E+01 1.97356E+02 3.00000E+00
 -1       517-1.00000E+01 1.93382E+02 3.00000E+00
 -1       518-1.00000E+01 1.89409E+02 3.00000E+00
 -1       519-1.00000E+01 1.85436E+02 3.00000E+00
 -1       520-1.00000E+01 1.81462E+02 3.00000E+00
 -1       521-1.00000E+01 1.77489E+02 3.00000E+00
 -1       522-1.00000E+01 1.73516E+02 3.00000E+00
 -1       523-1.00000E+01 1.69542E+02 3.00000E+00
 -1       524-1.00000E+01 1.65569E+02 3.00000E+00
 -1       525-1.00000E+01 1.61596E+02 3.00000E+00
 -1       526-1.00000E+01 1.57622E+02 3.00000E+00
 -1       527-1.00000E+01 1.53649E+02 3.00000E+00
 -1       528-1.00000E+01 1.49676E+02 3.00000E+00
 -1       529-1.00000E+01 1.45702E+02 3.00000E+00
 -1       530-1.00000E+01 1.41729E+02 3.00000E+00
 -1       531-1.00000E+01 1.37756E+02 3.00000E+00
 -1       532-1.00000E+01 1.33782E+02 3.00000E+00
 -1       533-1.00000E+01 1.29809E+02 3.00000E+00
 -1       534-1.00000E+01 1.25836E+02 3.00000E+00
 -1       535-1.00000E+01 1.21862E+02 3.00000E+00
 -1       536-1.00000E+01 1.17889E+02 3.00000E+00
 -1       537-1.00000E+01 1.13916E+02 3.00000E+00
 -1       538-1.00000E+01 1.09942E+02 3.00000E+00
 -1       539-1.00000E+01 1.05969E+02 3.00000E+00
 -1       540-1.00000E+01 1.01996E+02 3.00000E+00
 -1       541-1.00000E+01 9.80223E+01 3.00000E+00
 -1       542-1.00000E+01 9.40490E+01 3.00000E+00
 -1       543-1.00000E+01 9.00757E+01 3.00000E+00
 -1       544-1.00000E+01 8.61023E+01 3.00000E+00
 -1       545-1.00000E+01 8.21290E+01 3.00000E+00
 -1       546-1.00000E+01 7.81557E+01 3.00000E+00
 -1       547-1.00000E+01 7.41823E+01 3.00000E+00
 -1       548-1.00000E+01 7.02090E+01 3.00000E+00
 -1       549-1.00000E+01 6.62357E+01 3.00000E+00
 -1       550-1.00000E+01 6.22623E+01 3.00000E+00
 -1       551-1.00000E+01 5.82890E+01 3.00000E+00
 -1       552-1.00000E+01 5.43157E+01 3.00000E+00
 -1       553-1.00000E+01 5.03423E+01 3.00000E+00
 -1       554-1.00000E+01 4.63690E+01 3.00000E+00
 -1       555-1.00000E+01 4.23957E+01 3.00000E+00
 -1       556-1.01875E+01 3.70605E+01 3.00000E+00
 -1       557-1.07480E+01 3.37538E+01 3.00000E+00
 -1       558-1.16737E+01 3.05303E+01 3.00000E+00
 -1       559-1.29528E+01 2.74301E+01 3.00000E+00
 -1       560-1.45704E+01 2.44921E+01 3.00000E+00
 -1       561-1.00468E+01 3.87321E+01 3.00000E+00
 -1       562-1.04217E+01 3.53993E+01 3.00000E+00
 -1       563-1.11652E+01 3.21290E+01 3.00000E+00
 -1       564-1.22698E+01 2.89623E+01 3.00000E+00
 -1       565-1.37207E+01 2.59386E+01 3.00000E+00
 -1       566-1.55003E+01 2.30959E+01 3.00000E+00
 -1       567-1.83970E+01-1.64210E+01-1.66667E+00
 -1       568-1.83970E+01-1.64210E+01 1.66667E+00
 -1       569-1.83970E+01-1.64210E+01-3.33333E+00
 -1       570-1.83970E+01-1.64210E+01 0.00000E+00
 -1       571-1.83970E+01-1.64210E+01 3.33333E+00
 -1       572-2.11606E+01-1.35947E+01 5.00000E+00
 -1       573-2.34921E+01-1.04030E+01 5.00000E+00
 -1       574-2.53218E+01-6.89982E+00 5.00000E+00
 -1       575-2.65809E+01-3.15391E+00 5.00000E+00
 -1       576-2.72094E+01 7.47239E-01 5.00000E+00
 -1       577-2.71661E+01 4.69810E+00 5.00000E+00
 -1       578-2.64338E+01 8.58056E+00 5.00000E+00
 -1       579-2.50272E+01 1.22726E+01 5.00000E+00
 -1       580-2.29950E+01 1.56610E+01 5.00000E+00
 -1       581-2.04121E+01 1.86513E+01 5.00000E+00
 -1       582-1.73704E+01 2.11740E+01 5.00000E+00
 -1       583-1.39671E+01 2.31832E+01 5.00000E+00